# Generated by MATLAB
1 atom types
12500 atoms
1 bond types
12250 bonds
1 angle types
12000 angles
1 dihedral types
11750 dihedrals

1.7924 112.4472 xlo xhi
1.8051 112.4290 ylo yhi
1.8610 112.4455 zlo zhi

Masses

1 72

Atoms  # full

1 1 1 0 42.3600484141663 31.1124899308859 51.8353761706434
2 1 1 0 42.6131659716365 29.151018463107 51.076248679544
3 1 1 0 45.1270753054106 31.0538886754856 49.2846477515594
4 1 1 0 44.4049791473987 33.6590011530861 49.0770680164571
5 1 1 0 47.0127257254029 31.1662981383105 46.6369619090914
6 1 1 0 49.3749298139148 34.0375571832156 47.0246363465751
7 1 1 0 49.5391779108055 31.0828198383912 44.5618782484505
8 1 1 0 49.4426205712367 34.0140357545551 44.8532254052182
9 1 1 0 47.1469359370935 36.0706619085629 46.6711317453398
10 1 1 0 49.5189972667767 36.2093726698149 49.3645466573385
11 1 1 0 47.1970004411192 33.982599067583 47.2122579895767
12 1 1 0 47.1328925775068 31.6277350649835 44.4530231938264
13 1 1 0 47.0337031435174 29.5524045825922 47.1570069508691
14 1 1 0 44.7353153462213 28.7301235337949 47.2509887121742
15 1 1 0 42.6653843225755 27.1466667388051 45.1442193994684
16 1 1 0 45.1070955689469 28.9889116875173 42.8586840569291
17 1 1 0 42.4327794663366 29.2418653335564 39.9080925148876
18 1 1 0 40.5750172425654 31.1297626482432 42.2724917951599
19 1 1 0 38.0442151904893 33.1737766118629 40.4532556595917
20 1 1 0 35.5301915683989 31.6333141830266 40.1467311537947
21 1 1 0 35.4122541907348 28.9988956331068 38.0245810955049
22 1 1 0 37.8604361902543 26.6814722840119 36.1762773846611
23 1 1 0 35.5824401380163 27.1257018565407 33.32797515704
24 1 1 0 33.5790401330161 26.435528676927 35.8920569586297
25 1 1 0 31.0165692744183 28.8380005628312 33.5431171892141
26 1 1 0 29.5223136204749 27.0720442034783 35.7956516664261
27 1 1 0 26.8479515423403 27.3160199074371 35.7422066634164
28 1 1 0 26.5541272171144 24.3630527153754 35.7065416510164
29 1 1 0 27.3225259120469 22.4640044791638 33.6278970215983
30 1 1 0 26.4370286767131 22.3893680165901 35.9060860626321
31 1 1 0 24.6322880207965 22.3674632303524 35.3932496401818
32 1 1 0 22.3178145329538 20.2929455170062 38.4998512099713
33 1 1 0 20.4868514524342 22.4318205617778 35.5352713011714
34 1 1 0 19.9381504240255 19.8436503941796 33.373262944058
35 1 1 0 22.7106870690956 22.1433788775853 36.0357629807379
36 1 1 0 20.4634157523237 24.4027656328941 35.6111709452326
37 1 1 0 17.5636142042413 26.7082469127965 36.050223789371
38 1 1 0 20.38995168407 28.9847130617161 36.1998939667779
39 1 1 0 18.1442127989363 29.3468212721202 36.1546183899694
40 1 1 0 20.260340301234 29.146408819242 34.0358192265315
41 1 1 0 20.0742435590504 31.7276078298032 33.8412764313046
42 1 1 0 17.8274640922572 31.0711947531246 35.5102536806036
43 1 1 0 16.1155440648383 31.3389313795014 35.7372309345452
44 1 1 0 17.6861973320439 33.9751271543009 38.152937854114
45 1 1 0 18.3346815918584 35.8837658793938 37.9162082872223
46 1 1 0 15.2526206382157 35.9089559368833 37.9646918914848
47 1 1 0 15.8772657565576 37.780027277588 36.1079675112742
48 1 1 0 13.8654912704193 35.7056522316387 38.0398520743583
49 1 1 0 13.7728283466094 33.8575784306082 35.9935664148787
50 1 1 0 11.4168954317613 31.2874886091174 36.2252304114077
51 1 1 0 104.853193354249 22.3081949071878 102.939441996456
52 1 1 0 107.214817691583 24.3776677704389 100.996849079152
53 1 1 0 109.502730178831 26.9469005678235 100.439388639751
54 1 1 0 109.618135655746 26.7559749954118 98.1535565155321
55 1 1 0 109.384317772566 24.4162905621569 100.897575362719
56 1 1 0 107.715884755473 27.2295746771639 103.240326502637
57 1 1 0 110.090033337268 28.9698784516281 105.543145429385
58 1 1 0 109.649342286445 26.9673421678509 102.614758637776
59 1 1 0 107.585002758992 24.8027915070878 105.692283357102
60 1 1 0 110.106558765101 22.4133466693657 104.996410704101
61 1 1 0 107.141011626324 20.1614462162784 102.801107302169
62 1 1 0 110.193714249189 20.1087570524768 102.940149559941
63 1 1 0 110.127090758732 19.9105736048868 105.218886594971
64 1 1 0 112.087192268669 17.4811934422181 105.256541246156
65 1 1 0 109.342150845715 15.6979840558822 105.440569791671
66 1 1 0 107.678498392337 13.6189110886739 103.418910387791
67 1 1 0 105.441337539102 15.3113506002569 105.476905608213
68 1 1 0 105.058707723078 13.2476905277849 103.378748867262
69 1 1 0 107.254698050312 13.2783359314849 101.122774851007
70 1 1 0 105.579089129821 11.1667993378837 103.371884631247
71 1 1 0 107.28902007679 9.11205493464028 101.152464993901
72 1 1 0 104.877120243669 9.08812999311804 100.651761655426
73 1 1 0 103.3355876078 9.09415772309012 101.108761512255
74 1 1 0 103.048242196747 7.0652797564605 98.2746616815579
75 1 1 0 100.766076923275 8.51578138037824 100.752850844686
76 1 1 0 102.604614349814 9.02301761654376 98.4753116559543
77 1 1 0 100.789504363445 10.913093493574 96.6639164116231
78 1 1 0 98.4552514479558 11.2910589375354 95.8940422430105
79 1 1 0 100.624759933309 8.80897995871918 94.4636507085328
80 1 1 0 100.944485671882 10.8595772098732 94.3328640239002
81 1 1 0 100.495485531296 13.7542869868761 96.2240905206447
82 1 1 0 103.437203197144 11.3753403719834 96.2095945013537
83 1 1 0 100.875647842223 11.3703350196679 98.1526090513502
84 1 1 0 103.404082247796 13.5560202669627 101.033853403853
85 1 1 0 102.731183976262 11.2244269617009 103.363635577501
86 1 1 0 102.800600162905 9.1330631219185 103.376809848179
87 1 1 0 101.174531133615 6.65770705339971 102.80219752155
88 1 1 0 101.058458164122 6.78259428483794 100.439465212629
89 1 1 0 100.734995557691 9.21997370881076 103.399015449817
90 1 1 0 101.242794312823 11.2165767015002 105.34604853896
91 1 1 0 102.651007349047 11.3053966070791 107.324346549428
92 1 1 0 105.289421218019 13.8724904139753 107.63647867818
93 1 1 0 103.469037869888 15.5582158590112 109.802416143215
94 1 1 0 100.796962022405 15.6329725756839 112.445514525077
95 1 1 0 100.688693290317 16.0225477687108 110.02641291735
96 1 1 0 100.50891773515 13.1320709413685 107.374553068302
97 1 1 0 98.4145034100087 16.0605913809633 109.946238940711
98 1 1 0 98.9654667009161 15.7524266544279 107.696224669603
99 1 1 0 98.5933799149036 17.4867974865905 107.410796686604
100 1 1 0 100.780445861934 17.8356895888692 109.3204395488
101 1 1 0 48.9585035576659 11.2572346533667 46.7332945516941
102 1 1 0 51.7928067316132 8.63149520588022 44.9355178491079
103 1 1 0 51.8684101179426 6.51809594912056 44.6036606408441
104 1 1 0 53.8596822658943 6.30527814579596 46.9029845646953
105 1 1 0 51.8657224299891 9.23288842158486 49.3619262520038
106 1 1 0 48.9255444819724 11.1094791360708 51.2614052225329
107 1 1 0 46.8223994599108 11.547762112232 53.5799568989136
108 1 1 0 45.156919767132 13.2249520204724 51.3554805594116
109 1 1 0 42.6059515168448 13.7201830813738 51.1734601047332
110 1 1 0 42.4521738294166 13.7637882237697 53.4697609552708
111 1 1 0 40.2683639736687 16.1171692981932 56.0831908979515
112 1 1 0 37.9074034416848 13.0266976395789 56.009776856757
113 1 1 0 37.6485629939623 11.268518361413 53.660645362612
114 1 1 0 40.4290609701477 13.0771584765077 56.2390726534345
115 1 1 0 38.4143372767864 15.6774281702966 58.5381878116943
116 1 1 0 35.8810101282502 13.0591616224641 56.2323452163845
117 1 1 0 33.9997998229362 15.5145497385438 53.6438521951812
118 1 1 0 33.6121685308762 17.5536915671882 51.7776316341354
119 1 1 0 33.2230606131925 19.925037879847 51.4615748276309
120 1 1 0 35.6402786668063 18.2212640114986 51.7846797771706
121 1 1 0 38.3043590897588 20.2857206658849 51.1531740017228
122 1 1 0 38.1463772543896 19.7187115486807 53.7204707344884
123 1 1 0 35.8406476415459 17.8417955013586 54.2011208870057
124 1 1 0 38.0166999820139 17.5443520644373 53.5242337254177
125 1 1 0 40.6957294130366 17.7582936045791 56.1827086474668
126 1 1 0 40.4341923300222 20.4931822415499 53.4831359436838
127 1 1 0 42.1460313356591 20.3312625182549 56.0017592000577
128 1 1 0 40.6094242302557 20.3469159057642 58.5263565244816
129 1 1 0 39.9834257225622 17.9104351633183 57.944483046736
130 1 1 0 42.2277119971065 15.5781717015764 57.9572993088562
131 1 1 0 40.3828444331713 15.8878738965053 58.6318456588647
132 1 1 0 37.8256731907451 13.6775211256114 58.5221446242311
133 1 1 0 39.9697790818376 13.1687291886512 60.4132058730753
134 1 1 0 42.2182677799022 11.1381868377894 62.4369766392601
135 1 1 0 42.9635297415846 13.540808607835 60.3135506916714
136 1 1 0 44.6360076013747 10.8015124399075 58.1174514070067
137 1 1 0 47.1832101616086 9.17959189908179 56.3632826000096
138 1 1 0 46.6006165801168 6.6332892258886 56.0112894634407
139 1 1 0 49.4999710403038 6.67449973731978 56.3876163922278
140 1 1 0 46.777989604869 4.67983767905473 55.6964881305891
141 1 1 0 46.5977481927592 4.42809156105659 53.7107775157197
142 1 1 0 44.7304963418185 2.33176531132401 56.4329576990157
143 1 1 0 44.9700875647132 4.23517965026927 56.3344207180898
144 1 1 0 42.9859978175058 4.50600978765879 55.8637893160349
145 1 1 0 44.5845193949552 4.20933330355331 53.4753745473712
146 1 1 0 42.1824468910991 2.17096783621997 51.2889324550632
147 1 1 0 40.1871747081419 4.60339141756307 51.1103220778287
148 1 1 0 37.6667413365758 2.07194201341818 51.4790391619847
149 1 1 0 37.8571293008337 4.24376143050177 54.0685838455502
150 1 1 0 40.1308609624266 2.60953331734694 55.8315495567345
151 1 1 0 38.3203931736038 103.112761376027 105.650972915781
152 1 1 0 40.4907591692506 102.950293546123 105.684348931308
153 1 1 0 42.4960916547708 101.196884490776 103.237743329575
154 1 1 0 40.669811310377 103.185157434757 101.039301830889
155 1 1 0 37.9495227758506 103.433042130944 103.210872985815
156 1 1 0 38.21377129597 100.430246934426 102.8253097327
157 1 1 0 37.9837359024359 98.9598753180892 103.217586467681
158 1 1 0 36.1648514299139 98.7089132479504 105.550185849126
159 1 1 0 36.2080793214764 100.59818317048 102.883502139235
160 1 1 0 33.9854208297389 103.027136810011 103.268011671514
161 1 1 0 33.3590903954738 100.493187546954 105.059698658418
162 1 1 0 31.350103670858 100.720819397076 103.480836131448
163 1 1 0 31.1436075895701 101.185692127938 100.871553526504
164 1 1 0 33.277481931426 98.2845700056382 100.655693334703
165 1 1 0 33.9021086541941 98.5363470664036 102.710038032808
166 1 1 0 30.9266228207717 98.4478420239894 105.262427039483
167 1 1 0 28.7156528240323 96.5109181091813 107.547525204333
168 1 1 0 26.9323534801944 93.7621994381591 110.071393506684
169 1 1 0 26.5870007682635 96.2471429366639 107.850979302259
170 1 1 0 24.9762702389096 96.1848156091413 105.543346742702
171 1 1 0 22.5833417116338 95.9343147203681 105.415413004732
172 1 1 0 22.4551335306536 93.7012937250528 105.512907387417
173 1 1 0 22.3620503751322 92.0702757643326 107.902409333481
174 1 1 0 20.0287016449274 93.6517316746882 107.527140272394
175 1 1 0 18.007843037742 91.5970659597849 105.646020016973
176 1 1 0 15.4474629874936 92.0957063922158 107.805034697527
177 1 1 0 15.5557096952887 94.2436077040024 109.361893934553
178 1 1 0 17.8061447584468 92.0619427654679 109.387867775075
179 1 1 0 19.853548717297 89.9267751690658 111.996901579156
180 1 1 0 19.8826879090066 87.4633594392727 110.096331429548
181 1 1 0 20.1272591634473 89.1613420569932 109.844919059456
182 1 1 0 18.0602260590408 86.9527202391212 107.396858419921
183 1 1 0 15.9373722422843 87.1488227844895 107.22022056016
184 1 1 0 17.6456515739537 89.389016296141 110.044469361851
185 1 1 0 17.9760262405677 89.2096275277515 111.78745731422
186 1 1 0 15.8703184410463 89.200372640437 109.690856204281
187 1 1 0 15.9385053906869 89.9658384816045 111.993583742278
188 1 1 0 13.4517269098915 89.5902620415349 111.552259392338
189 1 1 0 11.0368234451784 91.455367855787 111.838335144219
190 1 1 0 8.59587018429825 93.9775614852793 112.240041304818
191 1 1 0 7.15036739406203 93.9625475214948 109.718856088892
192 1 1 0 6.69567068103602 96.5991380812881 111.650437393571
193 1 1 0 4.11099149435031 93.8872867074668 109.594475652428
194 1 1 0 4.71812353490149 96.5418627622102 107.827860515283
195 1 1 0 6.51704925285334 98.7383313428872 107.877369453614
196 1 1 0 4.71951316774196 98.5171430668946 107.143834177838
197 1 1 0 4.28715101848318 101.186417114823 109.879143122755
198 1 1 0 4.49256361063861 102.838497623254 109.360071321541
199 1 1 0 4.11892177007757 105.018594958108 111.95534671401
200 1 1 0 1.95959031851508 107.742319525683 111.730466256232
201 1 1 0 64.8269090612674 100.710707991612 76.5783512152071
202 1 1 0 62.5072385538891 101.185206818967 73.8360221834634
203 1 1 0 60.8927179707762 98.595856156631 71.5094649225817
204 1 1 0 60.3907791329002 98.9975141494367 73.9564006307184
205 1 1 0 60.156838726182 96.0189094845028 76.0850647440655
206 1 1 0 62.9159348429993 95.9945864857193 75.9224719342428
207 1 1 0 62.4941742445564 98.5573652090745 75.7730894340353
208 1 1 0 60.8881041305804 98.4914118011325 76.3316119971893
209 1 1 0 62.7619064125848 96.7656689055334 73.901914668237
210 1 1 0 64.5464185011181 98.3902044801365 71.6512976444014
211 1 1 0 62.5199220517742 100.943261903324 71.3056354160852
212 1 1 0 64.7170173055381 98.5683667180969 74.2962889956141
213 1 1 0 67.2469346000876 96.6515468291111 76.4576203007542
214 1 1 0 65.073667935611 96.6014608630962 75.8305104205607
215 1 1 0 66.8545066920353 94.1301345549292 73.6392422742761
216 1 1 0 64.7107876099544 94.0400570732439 73.5498625292545
217 1 1 0 64.9547655902254 93.8567377831582 72.0683691330232
218 1 1 0 65.3749963583203 96.3950818759883 71.8311447467793
219 1 1 0 66.7890528591939 93.9097142081971 69.4931901924544
220 1 1 0 66.8226520590283 92.0754952904704 67.2534275173544
221 1 1 0 64.7712684128067 93.9415807731263 64.5779993381849
222 1 1 0 62.6849771173431 91.5522913226866 64.6183845514486
223 1 1 0 60.5168583705574 89.9180356761917 64.6466331715239
224 1 1 0 60.215984443183 87.0228196033729 65.0915643032477
225 1 1 0 57.8677182693282 87.1669290843903 62.8775878629641
226 1 1 0 60.3422920305266 86.9914519139878 62.934272778113
227 1 1 0 57.9932629651599 89.2439179907041 62.8341509452177
228 1 1 0 55.5950023400519 87.1690923315552 62.7353348480754
229 1 1 0 55.6457782510053 89.5321925343682 65.22576888483
230 1 1 0 56.3828712032863 91.6275384895025 65.0547298698997
231 1 1 0 57.8200228524185 91.9327495267227 64.8346177014009
232 1 1 0 55.8082205345296 91.9694103556336 66.816362675853
233 1 1 0 58.1424784786554 89.2974784738478 69.1242876640213
234 1 1 0 60.5562974381924 87.7291768112575 71.9220561566145
235 1 1 0 60.7828803626399 87.0559305061393 74.0484882439386
236 1 1 0 60.3929273094734 89.6605296866683 74.3552683121895
237 1 1 0 62.4572100734464 91.5111252454784 76.3132542017053
238 1 1 0 62.4943859627045 94.1677434705289 78.776966032362
239 1 1 0 65.3468453424737 93.8573437708459 78.4384562689983
240 1 1 0 64.8878837351422 94.3133728654827 75.784446608324
241 1 1 0 67.4937412525644 92.165018152288 74.0137191401219
242 1 1 0 67.1329514098351 89.2359120830157 74.1722864944124
243 1 1 0 64.7594467039527 89.566745905362 74.3192199151275
244 1 1 0 62.5229180724011 91.6463450084334 71.3273522181337
245 1 1 0 64.7222862750055 92.2056366114888 69.5424990404258
246 1 1 0 62.8005531385315 91.423956809063 69.5853384159392
247 1 1 0 60.9216396578707 89.6747289857616 71.6886018185815
248 1 1 0 63.1056616468627 89.4148944633393 71.8130602661832
249 1 1 0 65.1731920557517 87.7537227149137 71.6953483264661
250 1 1 0 62.4795485155886 85.4931260404058 71.740531327554
251 1 1 0 76.2068101624764 27.2125195352024 98.8565528070981
252 1 1 0 76.3758224488005 24.5334356055996 95.9421525434255
253 1 1 0 75.7977014646596 27.133759283957 94.0089366684159
254 1 1 0 74.3179426724025 27.0844230533984 94.1035975575101
255 1 1 0 71.64888976188 29.31161612628 96.7237566262411
256 1 1 0 69.2745852658049 30.9439265066176 96.3050062074271
257 1 1 0 69.8866748545924 31.3830924284005 98.5855404390215
258 1 1 0 67.2533743050812 33.2517513167249 98.2832726284693
259 1 1 0 67.475609512467 35.6688300216681 101.108940504233
260 1 1 0 67.2121027354308 37.6517264381517 103.170917073053
261 1 1 0 69.7675602936698 35.6681803917249 103.292757346526
262 1 1 0 69.1519934209439 37.7420049202413 103.099291959652
263 1 1 0 71.4733892197405 38.0148410889531 103.432135565579
264 1 1 0 71.322318302096 40.4270047786354 103.287624272505
265 1 1 0 69.6892898421713 40.6512440985065 100.969811430106
266 1 1 0 72.0561800616425 42.3582416452829 100.664036300711
267 1 1 0 72.0979649205445 44.9115951979388 98.6764295365928
268 1 1 0 74.214599921827 44.4625168812415 100.804475557235
269 1 1 0 73.9961525411737 42.9892370044099 98.4567508619017
270 1 1 0 73.8278151052314 40.7210462588387 98.7371096932638
271 1 1 0 76.2354504393241 38.4074734772408 96.0237360080779
272 1 1 0 76.3102188078102 35.6067547491773 98.2082401916808
273 1 1 0 73.954213954973 35.396563846538 96.3738310606244
274 1 1 0 73.7577541300615 37.7029920226919 94.2595696598369
275 1 1 0 76.1299082808935 35.9444072833944 94.5146235240014
276 1 1 0 76.3066829763161 37.8768522195449 94.4513745868463
277 1 1 0 78.5726261744657 37.9458719379619 96.7110420269782
278 1 1 0 80.5591580495927 37.6396170497972 98.544786971866
279 1 1 0 80.419462852731 40.4447135255318 95.9505221207922
280 1 1 0 82.5288547862097 42.7869227331141 98.7209568638741
281 1 1 0 82.8626744322562 45.1332972420882 96.6188591191829
282 1 1 0 80.4521857322595 45.1229661414675 96.5672299987839
283 1 1 0 80.2314836055849 42.3937728454011 98.4813432230002
284 1 1 0 78.0982787180312 40.3061918376057 101.13087399816
285 1 1 0 80.326046309657 40.5994499530905 98.715063870833
286 1 1 0 83.1220857971054 40.696955528185 98.5617310720984
287 1 1 0 80.6541144146491 38.3425180871861 101.16275203266
288 1 1 0 83.1937188680741 40.2166409519226 102.737342802837
289 1 1 0 85.2837450572751 38.4579290334506 103.216241884616
290 1 1 0 87.1854253590927 39.9083355823345 105.252430052953
291 1 1 0 89.7045366773086 38.3704870016431 105.604643473635
292 1 1 0 91.8101285198959 35.8225724654811 107.966663156883
293 1 1 0 92.1095769372775 33.2429589871844 109.783536993344
294 1 1 0 91.7774809811135 31.3400272176904 109.316833597568
295 1 1 0 91.4875992669419 29.2338529516611 111.747898376169
296 1 1 0 89.8884952165987 28.8000931314066 109.883020752015
297 1 1 0 86.9813846438063 26.7386823560683 109.566651259203
298 1 1 0 89.9542747164132 24.8665169107133 107.365457078871
299 1 1 0 91.5668323994603 27.1453098047042 109.995996121882
300 1 1 0 89.709427736434 29.0429287003274 107.092461013163
301 1 1 0 29.5036199935084 98.391827621062 31.5189268748292
302 1 1 0 28.966323099599 96.0471369584081 31.0396358777635
303 1 1 0 31.4096810382768 94.0642976438355 34.0449598076755
304 1 1 0 29.2922925406604 96.6279295729769 36.1160410449898
305 1 1 0 29.2351371368827 98.3513486894255 35.4606425560161
306 1 1 0 27.21318317814 98.2613554666545 35.8175408702895
307 1 1 0 28.9771439602885 100.392456243745 38.1991815365532
308 1 1 0 29.389030883301 103.190994367583 37.755150673714
309 1 1 0 31.5843438593196 100.415946414738 35.893634657016
310 1 1 0 33.5968480994684 103.487915181176 35.8318725160437
311 1 1 0 35.4707585624872 105.1262213755 33.3982157204582
312 1 1 0 33.8572711117566 105.142314511935 33.2600613563715
313 1 1 0 31.6349100535428 102.728126471054 31.5269232290728
314 1 1 0 28.7219529217202 105.485099756112 31.374021894156
315 1 1 0 31.4186264595429 107.252653934326 28.7653268837226
316 1 1 0 29.5431309404381 105.152769456131 29.0459959734151
317 1 1 0 31.1031799035377 105.367255953399 26.5234416784738
318 1 1 0 30.9998268053138 103.051671489393 26.6138364296811
319 1 1 0 29.155768350805 105.491823973565 25.0331351285549
320 1 1 0 28.8738761629439 107.650181497757 26.5290301516163
321 1 1 0 30.9858297076813 107.666677577105 24.8379552492882
322 1 1 0 33.3632158187869 104.907390002479 22.4761514364565
323 1 1 0 33.685744750294 107.505081806686 20.5994647714041
324 1 1 0 33.7600581433988 109.373787092553 19.9989876375762
325 1 1 0 35.4271550367975 107.68014602765 20.0920567428935
326 1 1 0 37.9074369676996 109.353602327818 22.3240596818024
327 1 1 0 40.6406562775495 107.661670193775 19.8810499903858
328 1 1 0 42.9886567551052 107.511253545552 18.0499264631909
329 1 1 0 40.4900602273494 105.348918310483 19.7513023298891
330 1 1 0 40.2580013570477 107.275208062598 17.5499499011554
331 1 1 0 38.1753191419527 105.557449408271 20.4985854205776
332 1 1 0 35.7952137642713 107.076687386766 17.873393991412
333 1 1 0 38.0088414085905 107.782961695142 19.8043434216035
334 1 1 0 35.9100058376823 107.78133653861 22.042919622105
335 1 1 0 33.7704779565456 105.231077938117 20.5713974941504
336 1 1 0 35.5345418864899 103.32563476657 20.3206615106909
337 1 1 0 35.664597270632 105.590289285859 18.191400887271
338 1 1 0 33.3669880137801 107.137418929449 15.6735860516209
339 1 1 0 35.8642374882345 107.205968642577 13.1214080184326
340 1 1 0 38.4670653575136 109.555081383762 13.5343014831905
341 1 1 0 40.0993845340158 107.194170727507 15.8941683948564
342 1 1 0 38.370835092726 104.939821839513 17.9399441211045
343 1 1 0 39.9659388480679 105.473881258814 15.4856941633063
344 1 1 0 38.1464811291652 102.906025150775 15.2577027122511
345 1 1 0 37.7016807547529 100.900224581479 13.2219780241741
346 1 1 0 38.1217994342635 100.912530840947 15.2483825569662
347 1 1 0 37.8660050652418 98.2520086902115 15.9250541184974
348 1 1 0 37.8769098038127 98.2057492443314 18.1042953453585
349 1 1 0 40.2505643011553 96.762039305979 15.658001461514
350 1 1 0 39.9538031032019 98.8033336800273 13.525979956617
351 1 1 0 64.6058330729594 17.6601392536772 33.5120103397487
352 1 1 0 64.929068694486 17.8647179080206 30.9165012461736
353 1 1 0 62.8606106563487 18.273228980583 29.3569850851793
354 1 1 0 60.0547691866815 17.9423457875661 31.2207756444348
355 1 1 0 60.2098600544487 20.0101062754204 31.6844384088686
356 1 1 0 60.1773031416491 20.0226922906807 33.2996248929988
357 1 1 0 57.865313276486 19.9410568353741 35.728744663562
358 1 1 0 56.0783288303574 20.4759553370359 33.2922000335715
359 1 1 0 56.040777349028 22.8450636443437 35.8090232298361
360 1 1 0 58.4845132885666 24.9275530882696 37.8386900890122
361 1 1 0 58.4707189188562 26.5728188020906 37.8495385235386
362 1 1 0 57.9554461923894 28.8643276238701 40.0868374672928
363 1 1 0 56.0932331923001 31.6727156368763 37.7730464166904
364 1 1 0 57.8937587310918 31.5880901632569 40.1503065672153
365 1 1 0 56.3578577153868 31.618175949741 40.2426240701933
366 1 1 0 53.3555912486522 33.6499715307949 42.3738269408766
367 1 1 0 54.0182361645161 35.8931228405529 42.1977900510096
368 1 1 0 51.3277314125669 33.4205104236511 42.1973427482201
369 1 1 0 48.8745393786941 31.4067037322505 40.5047280324263
370 1 1 0 47.1063779568037 30.9213742056442 42.4975069653776
371 1 1 0 46.7299251960158 28.8593875321358 42.3685874676833
372 1 1 0 44.7646718819356 31.5377539596912 42.1502934539355
373 1 1 0 44.8530007268549 33.3569217309516 45.1725692929769
374 1 1 0 42.4629884348729 33.9872444338123 42.3566911100986
375 1 1 0 42.2135551277834 35.6590192120697 42.3410801404281
376 1 1 0 40.1674985403219 37.9776668916227 42.1513739610281
377 1 1 0 38.0474805122107 37.6576686355952 42.4141140803439
378 1 1 0 38.2822612494507 37.9551946254966 39.940239541993
379 1 1 0 37.8098565425573 39.9679484514304 40.3815322643058
380 1 1 0 35.8565872979531 42.9578799877559 40.5252324947225
381 1 1 0 33.4991838557509 40.7527278262833 42.6173300394109
382 1 1 0 31.6168646606385 42.214962540407 44.6748053611663
383 1 1 0 28.8444296823111 40.5141962694179 46.7449528699461
384 1 1 0 26.9685017850028 38.2291008656547 45.2130863903742
385 1 1 0 26.4853109154308 35.6855100800082 44.9451116506105
386 1 1 0 29.1473993515599 37.9367641476137 42.1364002288418
387 1 1 0 27.2830450829146 40.2395080727368 40.4982686477871
388 1 1 0 29.1434469724086 42.9325846693928 42.3123411547746
389 1 1 0 31.6859555562363 44.7196312342719 42.8566442934796
390 1 1 0 28.7846131926792 46.8151023133836 42.3659878353563
391 1 1 0 27.2397783954187 46.996458322856 42.8233773500919
392 1 1 0 29.190259908545 45.2161839423012 42.4098052217223
393 1 1 0 26.9169101024917 45.1800488328077 44.5656828452385
394 1 1 0 24.5449901608123 45.1614102998718 45.0471026620741
395 1 1 0 22.7001448976334 44.5638614346673 46.8057872369249
396 1 1 0 20.4320606889497 45.128534911455 46.9030628119048
397 1 1 0 20.1592788899628 44.8293823083557 44.3529651468219
398 1 1 0 22.4158369143525 44.8933411066274 45.2378819817683
399 1 1 0 20.1594708961413 46.7486469943233 46.6996808172726
400 1 1 0 22.2286195154761 47.0844168665285 48.8684664394097
401 1 1 0 96.2043808514571 58.2369798553282 71.2471870020247
402 1 1 0 93.8434850021414 57.8732189255111 69.5411745975268
403 1 1 0 94.3010156833801 60.4074576015114 69.8228755256236
404 1 1 0 95.9737507359864 58.48305745731 69.5874398847532
405 1 1 0 93.6799855411529 60.6101954715859 67.3540830032541
406 1 1 0 91.5557347175111 62.7472660376438 69.7851866341021
407 1 1 0 91.708486794136 62.669811888969 67.6253109805713
408 1 1 0 89.6735680971409 60.0965567931954 67.4196885118491
409 1 1 0 87.2139865356685 63.08573945309 69.653585394368
410 1 1 0 85.2457472116098 60.6762724471589 72.0625817105647
411 1 1 0 83.1173836388878 58.6186748055129 71.6490419694067
412 1 1 0 83.2674563839048 58.4641751303276 73.9019151578931
413 1 1 0 85.334787402872 60.0947298005721 76.0816594294105
414 1 1 0 87.7301312104051 58.0277561026763 76.0234005302613
415 1 1 0 84.7989186649961 56.1845013121531 76.4121310019136
416 1 1 0 84.966169702982 55.7757706911499 78.043964247902
417 1 1 0 87.1567429619825 53.3911638289729 76.3128085581322
418 1 1 0 85.5175562625999 53.9594573060856 78.4535705247007
419 1 1 0 83.0612891711044 55.6600311089882 78.1713968731961
420 1 1 0 85.122501353493 53.6341496366527 80.2100471778485
421 1 1 0 85.26444002228 51.6422187850147 82.4739166975197
422 1 1 0 82.7035261917807 54.1516318221222 80.5127777106251
423 1 1 0 85.4597445967539 55.8586876837024 82.624444843059
424 1 1 0 83.1272890017461 57.8853490351124 80.5226337240956
425 1 1 0 80.4993285306771 60.0557571879197 78.3694455548779
426 1 1 0 78.1973189238514 58.3107950561529 80.246792114276
427 1 1 0 76.5891662931908 58.3382695287799 82.7971544056559
428 1 1 0 76.2681966705915 60.7227880093815 83.2406264867886
429 1 1 0 78.1190313170667 62.9045525444157 82.5838565253793
430 1 1 0 80.7849060518531 62.8717894561225 81.0358108097897
431 1 1 0 78.2740821200164 65.374191215481 80.5246989830106
432 1 1 0 81.0506507223897 62.754294828173 83.0557664614237
433 1 1 0 83.0650432916075 60.2589780170786 80.982946443773
434 1 1 0 84.8929441470579 58.3450861051718 78.0283731035776
435 1 1 0 82.727340208533 55.9154598190275 80.2273840213099
436 1 1 0 80.8803454199078 56.2604248448794 80.9140747695409
437 1 1 0 80.4187336472227 54.0323435140271 80.3614785259698
438 1 1 0 83.2827799600119 53.7126109155988 82.6896671901841
439 1 1 0 85.4222659639881 53.4304110137999 82.8533469103108
440 1 1 0 87.6911390302639 54.0573323708648 85.0685762324233
441 1 1 0 85.1930303533045 53.9340297024186 87.7663055871783
442 1 1 0 84.7342034252153 53.5348409802455 85.0858178598162
443 1 1 0 83.0670982675252 51.868209842978 84.9091727163237
444 1 1 0 83.0614009422507 49.6237817721299 85.3427370451941
445 1 1 0 82.656719518766 46.7028852607729 87.1671179653371
446 1 1 0 80.9267173025106 49.6196088636106 85.0637593723529
447 1 1 0 78.3791144887307 49.6686136837425 83.1019171021511
448 1 1 0 75.9651283181169 49.60382242247 80.3994421767938
449 1 1 0 75.7705726787844 46.9647128281237 78.6082839485936
450 1 1 0 76.291407439724 44.9921456278374 78.7827742709328
451 1 1 0 54.0007752542788 9.18347762575691 64.6553870854461
452 1 1 0 55.5802993405066 6.85905680257857 64.8877603842936
453 1 1 0 57.850808111105 8.74791822879102 67.2652303299026
454 1 1 0 58.4145890380603 7.02483764560317 64.681977199474
455 1 1 0 57.9434469986268 6.512041068741 62.9836539403957
456 1 1 0 60.3139625841498 6.92736174065312 60.8407446258104
457 1 1 0 58.2543764953689 8.67017188378868 58.5813165384717
458 1 1 0 60.5099211682961 11.5812953975838 55.7667136020485
459 1 1 0 60.6250170060439 13.7088260011067 58.5677295364886
460 1 1 0 60.7338670783575 11.2822040112832 57.8801416847492
461 1 1 0 60.1998956481079 9.301354096035 56.0756500705303
462 1 1 0 60.8208406170316 9.05186786072314 58.5158477296403
463 1 1 0 60.7819102956481 10.900446128324 60.3392106135192
464 1 1 0 58.4622596674626 13.6531709090752 57.9146343537749
465 1 1 0 60.6439335815902 15.9368793147339 58.5683942729233
466 1 1 0 60.2115684282487 18.1894994771095 55.7633176746674
467 1 1 0 62.3686901821284 15.9178059834945 53.6160078957677
468 1 1 0 62.6339294864095 13.0576870343432 53.5428994173639
469 1 1 0 62.8055915664413 11.5459396379737 53.4885154688887
470 1 1 0 60.786939184887 8.68273537323038 51.3479050740922
471 1 1 0 62.3753481733503 8.69386167911871 49.1746932454895
472 1 1 0 64.7019480104803 10.8448576248589 49.1906296241249
473 1 1 0 67.1109101261681 11.5242090766277 51.8160666631231
474 1 1 0 69.2942856280486 13.8472465333964 53.6432884631094
475 1 1 0 71.7283081814198 13.5763327151519 55.5759909076597
476 1 1 0 73.9142590537635 13.2183696400672 56.3892955497978
477 1 1 0 74.331406049549 11.2985704733345 53.9074209082223
478 1 1 0 71.8408388901884 8.56544126537157 56.1384133531542
479 1 1 0 69.1084018458961 6.51837023280219 58.0161873525141
480 1 1 0 72.0145453844239 6.80015279523943 60.1930175699176
481 1 1 0 71.3038847513116 9.07485717371371 62.9345906553197
482 1 1 0 71.9948230409237 11.2119262926351 60.1614906336581
483 1 1 0 69.2022614204068 11.3075496525581 62.3558332250086
484 1 1 0 67.1639682519098 9.14658788447179 62.3143022374995
485 1 1 0 67.0865352013171 10.7691827651058 60.5271831493011
486 1 1 0 64.5856702533735 10.9549775294109 58.2166498458894
487 1 1 0 65.3043283523319 8.67558981656792 58.275395385865
488 1 1 0 67.3828617941771 6.46873043944 56.3226905207258
489 1 1 0 64.8112061223385 8.53744489373442 53.7634006086727
490 1 1 0 67.2679895810914 6.95776144756358 51.8935651361081
491 1 1 0 65.3171652568909 4.65446678415384 51.3133642806844
492 1 1 0 62.9495483377723 4.17132401626893 51.7496316565581