# Generated by MATLAB
1 atom types
12350 atoms
1 bond types
12103 bonds
1 angle types
11856 angles
1 dihedral types
11609 dihedrals

-341.0000 578.0000 xlo xhi
-423.0000 334.0000 ylo yhi
1.0000 95.0000 zlo zhi

Masses

1 72

Atoms

1 1 -71 269 41
2 1 -72 269 40
3 1 -72 268 41
4 1 -73 267 40
5 1 -73 268 41
6 1 -74 268 42
7 1 -74 269 41
8 1 -74 268 40
9 1 -74 269 39
10 1 -73 268 39
11 1 -72 269 39
12 1 -71 270 39
13 1 -71 271 39
14 1 -70 270 38
15 1 -70 269 38
16 1 -71 269 39
17 1 -70 269 39
18 1 -69 268 40
19 1 -69 269 39
20 1 -68 270 40
21 1 -67 271 40
22 1 -68 270 41
23 1 -67 269 40
24 1 -66 270 41
25 1 -67 270 40
26 1 -67 271 39
27 1 -67 271 38
28 1 -66 270 37
29 1 -66 270 38
30 1 -65 270 39
31 1 -66 271 38
32 1 -65 271 38
33 1 -64 270 39
34 1 -64 271 39
35 1 -64 272 38
36 1 -63 273 37
37 1 -63 272 38
38 1 -63 271 38
39 1 -62 270 38
40 1 -62 269 37
41 1 -62 268 38
42 1 -62 268 39
43 1 -61 268 38
44 1 -62 269 38
45 1 -63 270 39
46 1 -63 269 40
47 1 -64 269 39
48 1 -64 269 38
49 1 -65 268 37
50 1 -64 269 37
51 1 75 -58 66
52 1 74 -59 66
53 1 75 -59 67
54 1 75 -60 68
55 1 76 -60 69
56 1 75 -60 69
57 1 75 -61 70
58 1 75 -60 71
59 1 74 -60 72
60 1 75 -59 72
61 1 75 -59 71
62 1 76 -60 72
63 1 75 -59 73
64 1 74 -58 72
65 1 73 -58 72
66 1 73 -58 71
67 1 73 -59 72
68 1 74 -58 73
69 1 73 -59 74
70 1 72 -60 74
71 1 72 -60 75
72 1 71 -61 76
73 1 70 -60 76
74 1 69 -60 76
75 1 69 -60 77
76 1 70 -60 77
77 1 70 -61 78
78 1 71 -62 78
79 1 72 -62 77
80 1 71 -63 76
81 1 72 -62 76
82 1 73 -61 75
83 1 72 -61 74
84 1 72 -60 73
85 1 73 -60 73
86 1 74 -61 72
87 1 73 -61 71
88 1 73 -61 70
89 1 74 -61 69
90 1 75 -62 69
91 1 75 -62 68
92 1 74 -62 67
93 1 73 -63 67
94 1 74 -62 66
95 1 75 -61 67
96 1 75 -60 67
97 1 74 -59 67
98 1 74 -60 68
99 1 73 -61 69
100 1 74 -60 70
101 1 230 5 81
102 1 231 5 80
103 1 230 4 81
104 1 231 4 81
105 1 231 5 82
106 1 232 6 81
107 1 233 6 81
108 1 234 7 82
109 1 235 6 82
110 1 235 5 83
111 1 235 5 82
112 1 236 6 82
113 1 236 5 82
114 1 236 5 83
115 1 235 6 83
116 1 235 6 84
117 1 236 7 83
118 1 236 8 83
119 1 236 9 82
120 1 237 10 83
121 1 238 11 82
122 1 239 12 82
123 1 239 12 81
124 1 240 12 80
125 1 241 13 79
126 1 242 13 78
127 1 241 12 77
128 1 240 13 78
129 1 240 12 77
130 1 240 11 76
131 1 239 11 75
132 1 240 12 76
133 1 239 13 75
134 1 239 14 75
135 1 239 14 76
136 1 238 13 77
137 1 238 14 77
138 1 239 14 78
139 1 240 13 77
140 1 239 13 76
141 1 240 14 76
142 1 241 13 75
143 1 242 12 75
144 1 241 11 76
145 1 242 10 77
146 1 241 10 76
147 1 241 9 75
148 1 241 10 75
149 1 242 9 75
150 1 242 9 74
151 1 96 -55 55
152 1 95 -56 55
153 1 95 -55 56
154 1 96 -56 57
155 1 95 -56 57
156 1 94 -57 57
157 1 94 -58 57
158 1 95 -59 57
159 1 95 -58 57
160 1 95 -58 58
161 1 96 -58 59
162 1 95 -57 58
163 1 96 -58 58
164 1 96 -57 59
165 1 97 -57 59
166 1 97 -56 58
167 1 96 -57 58
168 1 96 -57 57
169 1 97 -58 57
170 1 97 -59 56
171 1 96 -60 55
172 1 95 -61 56
173 1 95 -60 55
174 1 94 -60 56
175 1 95 -59 55
176 1 94 -60 54
177 1 95 -61 55
178 1 96 -62 55
179 1 96 -63 55
180 1 97 -62 55
181 1 97 -61 55
182 1 96 -61 54
183 1 95 -62 54
184 1 94 -63 53
185 1 94 -63 54
186 1 95 -63 55
187 1 96 -62 54
188 1 96 -61 55
189 1 96 -60 54
190 1 96 -59 53
191 1 95 -59 54
192 1 94 -58 53
193 1 93 -59 53
194 1 94 -58 52
195 1 94 -59 52
196 1 93 -60 52
197 1 92 -59 53
198 1 91 -59 53
199 1 92 -58 53
200 1 93 -58 52
201 1 517 -86 26
202 1 518 -86 25
203 1 518 -87 24
204 1 517 -86 23
205 1 518 -85 23
206 1 517 -86 22
207 1 516 -87 23
208 1 516 -87 24
209 1 517 -88 25
210 1 518 -89 24
211 1 517 -89 24
212 1 516 -90 24
213 1 515 -90 24
214 1 514 -90 25
215 1 514 -90 24
216 1 515 -90 23
217 1 514 -90 23
218 1 515 -91 22
219 1 514 -92 23
220 1 515 -93 23
221 1 516 -92 23
222 1 516 -93 24
223 1 516 -92 24
224 1 516 -91 23
225 1 515 -91 23
226 1 514 -92 24
227 1 513 -91 23
228 1 513 -90 24
229 1 512 -89 23
230 1 511 -88 22
231 1 510 -89 23
232 1 509 -90 22
233 1 508 -89 21
234 1 507 -90 20
235 1 508 -90 19
236 1 507 -89 19
237 1 506 -88 18
238 1 505 -89 19
239 1 504 -89 20
240 1 503 -88 20
241 1 504 -87 20
242 1 504 -87 19
243 1 503 -87 18
244 1 502 -87 17
245 1 501 -87 17
246 1 500 -88 18
247 1 499 -87 17
248 1 499 -86 17
249 1 499 -86 16
250 1 500 -87 16
251 1 273 48 21
252 1 273 49 20
253 1 273 50 19
254 1 274 50 18
255 1 274 50 17
256 1 275 51 18
257 1 276 52 17
258 1 277 51 18
259 1 278 51 17
260 1 279 51 18
261 1 279 51 17
262 1 278 51 16
263 1 277 50 17
264 1 277 51 17
265 1 276 51 18
266 1 276 50 17
267 1 276 49 18
268 1 276 49 17
269 1 275 49 18
270 1 276 50 19
271 1 277 49 20
272 1 278 50 21
273 1 278 51 22
274 1 277 52 21
275 1 276 52 21
276 1 275 51 20
277 1 276 52 19
278 1 275 53 20
279 1 276 53 20
280 1 275 54 21
281 1 275 53 22
282 1 276 52 23
283 1 276 51 24
284 1 277 52 24
285 1 276 53 23
286 1 276 53 22
287 1 277 52 22
288 1 278 53 23
289 1 277 54 22
290 1 276 55 23
291 1 275 55 22
292 1 274 55 23
293 1 273 54 24
294 1 274 53 25
295 1 275 53 25
296 1 275 52 26
297 1 276 53 25
298 1 276 54 26
299 1 276 53 26
300 1 277 53 25
301 1 69 209 59
302 1 70 209 60
303 1 71 210 59
304 1 71 210 60
305 1 71 211 61
306 1 72 211 62
307 1 73 211 63
308 1 74 211 62
309 1 74 212 61
310 1 74 212 62
311 1 75 213 62
312 1 75 214 61
313 1 74 215 60
314 1 74 215 61
315 1 74 214 62
316 1 75 213 63
317 1 76 214 64
318 1 75 214 63
319 1 76 215 64
320 1 76 215 63
321 1 77 215 62
322 1 77 214 61
323 1 76 214 62
324 1 76 215 61
325 1 75 216 61
326 1 75 217 61
327 1 75 216 60
328 1 74 217 60
329 1 75 217 59
330 1 75 217 58
331 1 76 216 59
332 1 76 215 59
333 1 75 215 60
334 1 74 216 61
335 1 74 216 60
336 1 73 216 59
337 1 72 216 59
338 1 72 217 58
339 1 71 217 59
340 1 71 217 58
341 1 72 218 57
342 1 73 217 56
343 1 72 216 57
344 1 71 215 56
345 1 70 215 55
346 1 70 216 55
347 1 69 215 55
348 1 69 214 55
349 1 70 215 56
350 1 70 216 56
351 1 79 -141 83
352 1 79 -142 83
353 1 78 -142 84
354 1 79 -143 84
355 1 78 -144 85
356 1 79 -145 84
357 1 80 -144 85
358 1 81 -143 84
359 1 80 -143 85
360 1 79 -142 85
361 1 80 -141 84
362 1 81 -141 83
363 1 82 -142 82
364 1 83 -142 83
365 1 82 -141 84
366 1 81 -140 83
367 1 80 -139 84
368 1 80 -138 83
369 1 81 -137 82
370 1 82 -137 81
371 1 81 -137 81
372 1 80 -136 80
373 1 79 -135 80
374 1 78 -136 81
375 1 78 -137 82
376 1 77 -137 83
377 1 76 -138 82
378 1 76 -137 83
379 1 75 -136 84
380 1 76 -135 85
381 1 76 -135 84
382 1 77 -135 85
383 1 76 -136 85
384 1 75 -136 86
385 1 74 -135 87
386 1 73 -136 88
387 1 72 -135 89
388 1 71 -135 89
389 1 71 -136 90
390 1 72 -137 91
391 1 73 -137 91
392 1 72 -136 91
393 1 71 -136 92
394 1 70 -137 93
395 1 71 -138 93
396 1 71 -137 94
397 1 70 -137 94
398 1 70 -138 94
399 1 69 -137 93
400 1 69 -137 92
401 1 118 18 90
402 1 117 19 91
403 1 118 19 90
404 1 118 20 89
405 1 117 21 88
406 1 118 21 89
407 1 119 20 89
408 1 120 21 88
409 1 121 21 88
410 1 122 21 89
411 1 123 22 90
412 1 124 22 89
413 1 125 23 88
414 1 124 23 87
415 1 125 22 87
416 1 124 22 88
417 1 125 21 88
418 1 124 20 87
419 1 125 21 87
420 1 125 21 86
421 1 126 21 87
422 1 127 20 87
423 1 127 20 86
424 1 128 21 85
425 1 129 22 85
426 1 130 23 86
427 1 131 23 86
428 1 132 23 87
429 1 133 22 86
430 1 132 21 85
431 1 131 22 84
432 1 130 21 83
433 1 131 20 84
434 1 130 21 85
435 1 131 20 86
436 1 130 19 85
437 1 129 18 86
438 1 128 19 86
439 1 128 20 85
440 1 128 19 84
441 1 127 19 85
442 1 127 18 86
443 1 126 18 85
444 1 125 17 86
445 1 125 18 87
446 1 124 17 86
447 1 123 18 85
448 1 122 18 85
449 1 122 17 86
450 1 121 16 85
451 1 -54 172 61
452 1 -53 171 61
453 1 -53 171 62
454 1 -54 170 62
455 1 -55 171 62
456 1 -54 172 63
457 1 -55 171 63
458 1 -54 170 63
459 1 -54 169 62
460 1 -53 168 62
461 1 -54 169 61
462 1 -54 169 60
463 1 -55 169 61
464 1 -54 168 62
465 1 -54 167 61
466 1 -53 166 62
467 1 -53 166 61
468 1 -54 166 62
469 1 -54 167 63
470 1 -53 168 64
471 1 -53 169 65
472 1 -52 170 65
473 1 -51 169 64
474 1 -50 169 65
475 1 -50 170 65
476 1 -49 169 66
477 1 -50 168 65
478 1 -50 167 64
479 1 -49 166 63
480 1 -50 165 64
481 1 -51 164 63
482 1 -50 163 63
483 1 -51 162 63
484 1 -51 163 64
485 1 -52 164 64
486 1 -53 163 63
487 1 -53 162 62
488 1 -52 161 63
489 1 -53 160 64
490 1 -54 159 64
491 1 -53 159 63
492 1 -52 159 63
493 1 -51 160 62
494 1 -51 159 61
495 1 -51 158 61
496 1 -52 157 60
497 1 -53 157 59
498 1 -52 156 60
499 1 -52 157 61
500 1 -52 157 62
501 1 -20 0 89
502 1 -21 0 89
503 1 -20 0 88
504 1 -20 1 87
505 1 -19 0 87
506 1 -18 1 88
507 1 -17 1 88
508 1 -16 1 89
509 1 -17 1 90
510 1 -18 2 89
511 1 -18 1 90
512 1 -19 1 90
513 1 -18 1 91
514 1 -17 1 91
515 1 -17 2 90
516 1 -17 1 89
517 1 -16 0 88
518 1 -17 0 88
519 1 -16 0 87
520 1 -16 -1 86
521 1 -15 -1 86
522 1 -15 0 85
523 1 -15 1 84
524 1 -14 0 83
525 1 -14 1 83
526 1 -14 2 84
527 1 -14 1 85
528 1 -15 2 86
529 1 -15 1 85
530 1 -16 2 85
531 1 -15 3 86
532 1 -16 4 86
533 1 -17 3 87
534 1 -17 4 86
535 1 -16 4 87
536 1 -17 4 87
537 1 -16 3 88
538 1 -15 4 87
539 1 -14 3 88
540 1 -15 2 89
541 1 -15 1 89
542 1 -14 1 90
543 1 -13 0 90
544 1 -14 -1 89
545 1 -13 -1 89
546 1 -12 0 90
547 1 -11 1 90
548 1 -10 0 91
549 1 -10 1 92
550 1 -10 0 93
551 1 221 -107 77
552 1 222 -108 77
553 1 223 -108 76
554 1 223 -107 77
555 1 223 -106 76
556 1 222 -106 75
557 1 221 -105 76
558 1 222 -106 77
559 1 221 -106 76
560 1 220 -105 75
561 1 220 -106 76
562 1 219 -106 77
563 1 219 -107 78
564 1 220 -107 79
565 1 221 -107 78
566 1 220 -106 78
567 1 220 -106 79
568 1 219 -106 79
569 1 218 -105 80
570 1 218 -106 80
571 1 219 -106 81
572 1 219 -106 80
573 1 219 -105 79
574 1 218 -104 80
575 1 218 -104 79
576 1 217 -104 78
577 1 218 -104 77
578 1 217 -104 76
579 1 216 -104 77
580 1 217 -104 77
581 1 216 -103 76
582 1 217 -104 75
583 1 217 -103 74
584 1 218 -102 75
585 1 218 -102 76
586 1 217 -103 75
587 1 217 -102 76
588 1 217 -101 77
589 1 217 -101 78
590 1 216 -102 77
591 1 217 -103 78
592 1 216 -103 79
593 1 217 -104 79
594 1 217 -103 80
595 1 218 -103 79
596 1 219 -102 79
597 1 220 -103 79
598 1 221 -103 78
599 1 221 -103 77
600 1 222 -103 76
601 1 162 125 28
602 1 161 126 29
603 1 160 126 30
604 1 159 127 31
605 1 159 126 32
606 1 158 126 33
607 1 157 125 34
608 1 157 126 35
609 1 158 126 35
610 1 158 127 36
611 1 157 127 37
612 1 158 126 37
613 1 158 126 38
614 1 158 127 38
615 1 159 128 37
616 1 159 127 36
617 1 160 128 36
618 1 160 128 35
619 1 161 127 35
620 1 162 128 34
621 1 163 127 35
622 1 162 126 34
623 1 161 126 35
624 1 161 125 35
625 1 160 124 35
626 1 160 123 34
627 1 160 123 35
628 1 161 124 36
629 1 160 125 35
630 1 159 126 34
631 1 160 126 33
632 1 160 125 32
633 1 160 125 33
634 1 161 124 32
635 1 162 125 31
636 1 161 125 30
637 1 161 124 29
638 1 162 123 29
639 1 162 123 30
640 1 163 122 29
641 1 162 122 28
642 1 161 122 28
643 1 160 122 27
644 1 161 123 26
645 1 161 124 26
646 1 161 125 26
647 1 162 126 26
648 1 162 127 25
649 1 162 126 25
650 1 162 126 24
651 1 308 199 38
652 1 308 199 39
653 1 307 198 38
654 1 307 199 37
655 1 308 199 37
656 1 307 200 38
657 1 306 201 39
658 1 307 201 38
659 1 308 202 39
660 1 307 202 40
661 1 306 203 40
662 1 307 204 40
663 1 306 203 41
664 1 305 204 40
665 1 305 205 39
666 1 305 204 38
667 1 304 203 38
668 1 305 204 39
669 1 306 203 38
670 1 306 202 39
671 1 307 203 40
672 1 306 204 39
673 1 306 204 38
674 1 307 205 38
675 1 308 206 39
676 1 307 207 40
677 1 306 208 40
678 1 305 207 40
679 1 304 208 40
680 1 305 207 39
681 1 305 206 40
682 1 305 207 41
683 1 306 206 41
684 1 306 207 42
685 1 306 206 42
686 1 306 207 43
687 1 305 207 44
688 1 306 208 43
689 1 307 207 42
690 1 307 208 43
691 1 308 209 44
692 1 309 209 44
693 1 309 209 45
694 1 310 208 45
695 1 309 208 46
696 1 308 208 47
697 1 309 207 47
698 1 309 207 46
699 1 308 207 46
700 1 309 207 45
701 1 10 51 29
702 1 10 52 29
703 1 9 52 29
704 1 9 53 29
705 1 8 54 30
706 1 9 54 29
707 1 10 54 29
708 1 10 55 28
709 1 10 56 29
710 1 10 55 29
711 1 11 55 30
712 1 11 54 29
713 1 12 55 28
714 1 13 55 28
715 1 13 55 29
716 1 14 56 29
717 1 14 57 30
718 1 15 57 30
719 1 16 57 31
720 1 15 58 30
721 1 14 59 30
722 1 14 58 30
723 1 13 57 29
724 1 13 57 30
725 1 13 56 31
726 1 14 55 32
727 1 13 54 31
728 1 12 53 32
729 1 13 53 33
730 1 13 54 33
731 1 12 55 32
732 1 12 56 31
733 1 13 57 31
734 1 13 57 32
735 1 12 56 33
736 1 12 56 34
737 1 12 55 35
738 1 12 54 36
739 1 13 55 36
740 1 12 54 37
741 1 11 53 36
742 1 11 53 37
743 1 10 53 36
744 1 10 54 36
745 1 11 54 37
746 1 12 55 38
747 1 13 54 38
748 1 12 55 39
749 1 12 56 39
750 1 13 57 40
751 1 -71 162 18
752 1 -71 161 17
753 1 -71 160 17
754 1 -71 160 18
755 1 -72 160 17
756 1 -72 161 18
757 1 -73 162 18
758 1 -74 162 19
759 1 -75 161 18
760 1 -75 162 18
761 1 -74 163 18
762 1 -73 162 19
763 1 -74 163 19
764 1 -73 163 19
765 1 -72 163 18
766 1 -71 164 19
767 1 -70 163 20
768 1 -69 164 19
769 1 -70 163 19
770 1 -70 164 19
771 1 -71 165 20
772 1 -72 166 21
773 1 -71 167 21
774 1 -70 168 22
775 1 -71 167 22
776 1 -70 167 23
777 1 -70 168 24
778 1 -69 169 24
779 1 -69 170 25
780 1 -70 170 25
781 1 -69 169 25
782 1 -68 168 26
783 1 -67 169 25
784 1 -66 168 26
785 1 -65 167 25
786 1 -64 166 25
787 1 -63 167 25
788 1 -64 167 25
789 1 -63 166 26
790 1 -62 166 26
791 1 -63 165 27
792 1 -63 165 28
793 1 -64 165 28
794 1 -65 165 29
795 1 -65 166 28
796 1 -65 167 28
797 1 -65 167 29
798 1 -66 166 28
799 1 -67 165 29
800 1 -66 164 30
801 1 197 69 6
802 1 196 70 5
803 1 196 69 5
804 1 197 69 4
805 1 198 68 4
806 1 199 67 5
807 1 198 67 6
808 1 199 68 6
809 1 198 68 7
810 1 199 69 7
811 1 198 70 6
812 1 198 71 7
813 1 198 71 8
814 1 199 71 9
815 1 200 71 8
816 1 200 70 8
817 1 200 69 8
818 1 201 68 9
819 1 200 69 10
820 1 199 68 11
821 1 198 69 11
822 1 199 69 10
823 1 198 69 9
824 1 197 68 9
825 1 196 67 9
826 1 195 68 10
827 1 194 68 11
828 1 195 67 11
829 1 195 68 12
830 1 195 67 12
831 1 196 66 12
832 1 195 66 13
833 1 196 67 14
834 1 195 67 15
835 1 194 67 16
836 1 195 66 15
837 1 196 66 14
838 1 196 67 15
839 1 197 67 14
840 1 196 66 15
841 1 195 65 14
842 1 194 64 14
843 1 195 64 15
844 1 196 63 15
845 1 197 64 15
846 1 197 63 14
847 1 198 63 13
848 1 197 62 14
849 1 198 62 13
850 1 199 63 12
851 1 255 -14 77
852 1 255 -14 78
853 1 254 -14 78
854 1 253 -13 77
855 1 252 -13 78
856 1 251 -14 77
857 1 251 -15 78
858 1 252 -14 77
859 1 251 -15 77
860 1 252 -15 76
861 1 253 -14 76
862 1 253 -13 75
863 1 252 -12 74
864 1 253 -12 75
865 1 253 -11 74
866 1 252 -10 73
867 1 253 -11 72
868 1 252 -12 72
869 1 253 -12 72
870 1 253 -12 73
871 1 254 -12 72
872 1 255 -12 72
873 1 256 -13 73
874 1 255 -14 72
875 1 256 -15 72
876 1 257 -15 73
877 1 258 -15 74
878 1 259 -16 75
879 1 259 -17 76
880 1 260 -16 75
881 1 260 -15 76
882 1 260 -16 77
883 1 261 -15 78
884 1 262 -15 78
885 1 263 -16 79
886 1 262 -17 80
887 1 263 -16 80
888 1 264 -15 81
889 1 263 -16 81
890 1 262 -16 81
891 1 261 -15 82
892 1 260 -14 83
893 1 260 -13 84
894 1 261 -14 84
895 1 260 -14 84
896 1 259 -15 85
897 1 260 -14 85
898 1 261 -15 84
899 1 261 -14 85
900 1 261 -13 85
901 1 185 -110 61
902 1 185 -110 62
903 1 184 -110 61
904 1 183 -111 61
905 1 184 -112 62
906 1 185 -112 63
907 1 185 -112 64
908 1 186 -113 65
909 1 187 -114 64
910 1 187 -115 65
911 1 186 -115 65
912 1 185 -114 65
913 1 184 -114 65
914 1 183 -114 65
915 1 184 -115 66
916 1 183 -115 65
917 1 183 -116 64
918 1 182 -116 65
919 1 182 -117 64
920 1 183 -116 63
921 1 183 -117 64
922 1 182 -117 63
923 1 182 -117 62
924 1 181 -118 62
925 1 180 -119 63
926 1 179 -119 62
927 1 180 -119 61
928 1 179 -120 62
929 1 179 -121 61
930 1 179 -120 60
931 1 180 -120 59
932 1 179 -119 60
933 1 178 -118 61
934 1 179 -117 60
935 1 180 -116 60
936 1 181 -115 59
937 1 182 -116 58
938 1 183 -116 59
939 1 183 -115 59
940 1 184 -116 58
941 1 185 -115 58
942 1 184 -115 58
943 1 185 -115 57
944 1 186 -115 56
945 1 185 -115 55
946 1 186 -115 55
947 1 187 -114 54
948 1 187 -115 54
949 1 187 -115 53
950 1 187 -116 52
951 1 -2 -128 13
952 1 -3 -128 12
953 1 -4 -129 13
954 1 -4 -129 12
955 1 -5 -130 13
956 1 -4 -130 13
957 1 -4 -130 14
958 1 -5 -129 13
959 1 -4 -128 13
960 1 -5 -128 12
961 1 -4 -128 12
962 1 -5 -129 11
963 1 -4 -129 10
964 1 -3 -128 11
965 1 -2 -127 10
966 1 -1 -126 11
967 1 0 -126 12
968 1 1 -127 11
969 1 1 -128 11
970 1 1 -129 12
971 1 0 -128 11
972 1 0 -127 10
973 1 -1 -126 9
974 1 0 -125 10
975 1 -1 -125 10
976 1 -2 -124 11
977 1 -1 -124 11
978 1 0 -124 10
979 1 1 -123 9
980 1 2 -122 8
981 1 1 -123 7
982 1 0 -124 6
983 1 -1 -124 5
984 1 -1 -123 5
985 1 -2 -122 5
986 1 -2 -121 5
987 1 -2 -122 4
988 1 -2 -123 5
989 1 -1 -122 6
990 1 -1 -121 7
991 1 -1 -120 7
992 1 -2 -120 7
993 1 -1 -120 8
994 1 -1 -120 9
995 1 -2 -120 8
996 1 -3 -121 7
997 1 -4 -121 7
998 1 -4 -120 8
999 1 -3 -121 9
1000 1 -4 -120 9
1001 1 -19 40 82
1002 1 -19 40 81
1003 1 -18 40 81
1004 1 -18 41 81
1005 1 -18 42 80
1006 1 -18 43 81
1007 1 -17 44 80
1008 1 -16 44 79
1009 1 -15 44 79
1010 1 -15 45 80
1011 1 -15 46 79
1012 1 -16 47 80
1013 1 -17 47 81
1014 1 -17 48 82
1015 1 -16 49 82
1016 1 -15 49 83
1017 1 -14 48 84
1018 1 -13 47 84
1019 1 -13 47 83
1020 1 -14 48 82
1021 1 -15 47 81
1022 1 -16 48 81
1023 1 -15 48 81
1024 1 -14 49 80
1025 1 -15 50 79
1026 1 -15 49 78
1027 1 -16 50 78
1028 1 -15 51 77
1029 1 -15 51 78
1030 1 -14 50 77
1031 1 -14 51 76
1032 1 -15 51 75
1033 1 -15 52 75
1034 1 -14 53 76
1035 1 -15 54 76
1036 1 -15 53 77
1037 1 -15 52 77
1038 1 -16 51 77
1039 1 -17 52 76
1040 1 -18 51 75
1041 1 -17 50 76
1042 1 -18 51 77
1043 1 -19 51 76
1044 1 -20 52 75
1045 1 -21 51 76
1046 1 -20 51 77
1047 1 -19 50 77
1048 1 -19 50 76
1049 1 -19 51 77
1050 1 -19 52 78
1051 1 287 46 43
1052 1 287 47 44
1053 1 288 47 45
1054 1 287 47 45
1055 1 287 46 45
1056 1 287 46 46
1057 1 286 47 45
1058 1 285 48 45
1059 1 286 48 44
1060 1 285 47 43
1061 1 284 46 42
1062 1 284 47 41
1063 1 285 46 42
1064 1 284 45 41
1065 1 283 46 40
1066 1 284 47 40
1067 1 283 48 40
1068 1 282 49 39
1069 1 281 50 40
1070 1 281 50 41
1071 1 280 49 41
1072 1 279 49 40
1073 1 279 50 40
1074 1 279 50 39
1075 1 278 51 38
1076 1 279 51 38
1077 1 280 52 39
1078 1 280 51 39
1079 1 280 51 40
1080 1 280 50 40
1081 1 281 51 39
1082 1 282 50 39
1083 1 282 50 38
1084 1 283 49 38
1085 1 283 50 38
1086 1 282 50 37
1087 1 282 51 38
1088 1 283 52 37
1089 1 283 52 36
1090 1 284 52 35
1091 1 285 51 35
1092 1 284 51 36
1093 1 285 52 35
1094 1 284 51 34
1095 1 283 52 34
1096 1 282 53 35
1097 1 283 53 36
1098 1 282 54 35
1099 1 282 54 36
1100 1 281 55 36
1101 1 152 57 32
1102 1 152 56 32
1103 1 153 56 33
1104 1 154 55 32
1105 1 155 56 31
1106 1 155 57 32
1107 1 154 57 32
1108 1 153 57 32
1109 1 153 56 31
1110 1 153 56 30
1111 1 152 57 30
1112 1 152 57 31
1113 1 151 57 30
1114 1 150 56 31
1115 1 149 55 32
1116 1 148 54 33
1117 1 149 54 32
1118 1 150 55 32
1119 1 151 54 31
1120 1 151 53 32
1121 1 152 54 31
1122 1 151 55 30
1123 1 150 55 29
1124 1 150 54 30
1125 1 149 54 31
1126 1 148 54 32
1127 1 147 53 33
1128 1 147 54 32
1129 1 146 54 33
1130 1 145 55 33
1131 1 144 56 32
1132 1 145 55 32
1133 1 146 55 31
1134 1 147 56 32
1135 1 147 57 33
1136 1 147 57 34
1137 1 146 57 34
1138 1 145 58 34
1139 1 146 58 33
1140 1 146 57 33
1141 1 145 57 34
1142 1 145 56 34
1143 1 144 55 33
1144 1 143 56 32
1145 1 142 55 32
1146 1 141 54 31
1147 1 140 53 31
1148 1 141 53 31
1149 1 140 53 30
1150 1 139 52 31
1151 1 275 -252 69
1152 1 275 -253 70
1153 1 276 -253 71
1154 1 277 -252 72
1155 1 277 -253 73
1156 1 278 -254 74
1157 1 277 -254 75
1158 1 277 -255 76
1159 1 276 -255 76
1160 1 277 -256 77
1161 1 276 -255 77
1162 1 277 -254 77
1163 1 277 -255 77
1164 1 276 -254 76
1165 1 275 -253 77
1166 1 274 -254 77
1167 1 273 -255 78
1168 1 274 -256 77
1169 1 275 -257 78
1170 1 274 -256 78
1171 1 275 -255 78
1172 1 276 -255 79
1173 1 277 -255 78
1174 1 278 -256 78
1175 1 278 -255 77
1176 1 279 -256 76
1177 1 279 -256 77
1178 1 280 -257 77
1179 1 281 -257 78
1180 1 280 -256 77
1181 1 281 -257 76
1182 1 282 -258 76
1183 1 281 -259 77
1184 1 281 -260 77
1185 1 281 -260 76
1186 1 280 -261 76
1187 1 281 -260 75
1188 1 282 -259 76
1189 1 282 -260 75
1190 1 283 -260 74
1191 1 283 -260 75
1192 1 283 -259 75
1193 1 283 -258 74
1194 1 282 -257 73
1195 1 282 -257 72
1196 1 281 -256 71
1197 1 280 -257 70
1198 1 281 -257 71
1199 1 280 -256 72
1200 1 280 -255 72
1201 1 171 36 16
1202 1 171 37 16
1203 1 172 38 17
1204 1 173 39 17
1205 1 172 40 17
1206 1 171 41 17
1207 1 172 42 16
1208 1 172 42 17
1209 1 171 43 17
1210 1 172 44 16
1211 1 172 43 17
1212 1 172 44 17
1213 1 173 45 17
1214 1 173 45 16
1215 1 172 46 15
1216 1 172 47 16
1217 1 171 47 15
1218 1 172 47 15
1219 1 173 46 14
1220 1 173 46 13
1221 1 172 47 13
1222 1 171 46 12
1223 1 170 45 12
1224 1 171 44 12
1225 1 172 44 13
1226 1 172 43 13
1227 1 173 44 12
1228 1 174 43 12
1229 1 174 44 12
1230 1 173 44 13
1231 1 172 43 14
1232 1 171 44 14
1233 1 171 45 14
1234 1 170 46 14
1235 1 169 46 15
1236 1 170 45 16
1237 1 171 44 17
1238 1 170 43 18
1239 1 169 44 19
1240 1 169 43 19
1241 1 168 42 18
1242 1 169 43 18
1243 1 169 43 17
1244 1 170 44 18
1245 1 170 44 19
1246 1 169 43 20
1247 1 170 42 19
1248 1 170 43 19
1249 1 171 42 19
1250 1 172 43 18
1251 1 170 -145 90
1252 1 171 -144 89
1253 1 172 -144 90
1254 1 171 -143 89
1255 1 170 -143 89
1256 1 171 -144 90
1257 1 172 -143 90
1258 1 171 -144 91
1259 1 171 -143 90
1260 1 171 -142 89
1261 1 170 -142 90
1262 1 170 -141 89
1263 1 170 -141 88
1264 1 171 -140 88
1265 1 170 -140 88
1266 1 169 -140 87
1267 1 168 -140 88
1268 1 169 -140 88
1269 1 170 -140 89
1270 1 171 -140 89
1271 1 171 -139 89
1272 1 171 -138 89
1273 1 171 -138 88
1274 1 170 -137 89
1275 1 171 -137 89
1276 1 170 -137 90
1277 1 169 -136 90
1278 1 168 -137 91
1279 1 168 -136 91
1280 1 168 -137 92
1281 1 169 -138 93
1282 1 169 -137 92
1283 1 169 -137 91
1284 1 169 -138 92
1285 1 170 -137 92
1286 1 171 -136 92
1287 1 172 -137 93
1288 1 173 -136 92
1289 1 174 -135 92
1290 1 173 -134 91
1291 1 172 -135 90
1292 1 172 -136 91
1293 1 173 -137 90
1294 1 174 -137 90
1295 1 174 -137 89
1296 1 174 -138 89
1297 1 173 -139 89
1298 1 173 -140 88
1299 1 174 -139 87
1300 1 174 -138 87
1301 1 -8 -28 16
1302 1 -8 -27 15
1303 1 -7 -26 15
1304 1 -7 -25 15
1305 1 -6 -26 16
1306 1 -5 -26 17
1307 1 -4 -27 17
1308 1 -3 -27 18
1309 1 -2 -27 18
1310 1 -1 -28 17
1311 1 -2 -29 17
1312 1 -3 -30 16
1313 1 -3 -29 15
1314 1 -3 -29 14
1315 1 -4 -30 15
1316 1 -5 -31 16
1317 1 -6 -30 17
1318 1 -6 -29 16
1319 1 -6 -28 15
1320 1 -5 -28 14
1321 1 -6 -27 15
1322 1 -7 -28 16
1323 1 -7 -29 15
1324 1 -7 -28 15
1325 1 -8 -29 14
1326 1 -7 -28 14
1327 1 -7 -29 13
1328 1 -6 -28 13
1329 1 -5 -29 14
1330 1 -5 -29 15
1331 1 -5 -29 16
1332 1 -4 -29 17
1333 1 -5 -29 18
1334 1 -6 -29 17
1335 1 -7 -28 17
1336 1 -7 -29 16
1337 1 -6 -30 16
1338 1 -7 -31 17
1339 1 -7 -30 18
1340 1 -8 -31 18
1341 1 -8 -32 17
1342 1 -9 -31 18
1343 1 -10 -30 18
1344 1 -11 -31 18
1345 1 -11 -32 18
1346 1 -11 -31 17
1347 1 -12 -30 17
1348 1 -11 -29 18
1349 1 -12 -28 18
1350 1 -13 -29 17
1351 1 -65 -103 85
1352 1 -64 -103 86
1353 1 -65 -102 87
1354 1 -64 -103 87
1355 1 -64 -102 88
1356 1 -63 -101 89
1357 1 -62 -101 88
1358 1 -63 -100 88
1359 1 -62 -101 87
1360 1 -61 -100 88
1361 1 -60 -101 87
1362 1 -59 -101 88
1363 1 -59 -102 89
1364 1 -60 -102 88
1365 1 -59 -103 87
1366 1 -58 -102 87
1367 1 -57 -102 87
1368 1 -58 -103 86
1369 1 -59 -103 85
1370 1 -59 -104 84
1371 1 -60 -105 84
1372 1 -59 -105 85
1373 1 -58 -106 85
1374 1 -59 -106 84
1375 1 -58 -105 84
1376 1 -58 -104 83
1377 1 -58 -104 82
1378 1 -57 -104 83
1379 1 -56 -104 82
1380 1 -55 -105 82
1381 1 -54 -105 82
1382 1 -53 -106 83
1383 1 -52 -105 82
1384 1 -52 -106 81
1385 1 -51 -107 81
1386 1 -51 -107 82
1387 1 -50 -107 82
1388 1 -51 -106 83
1389 1 -51 -107 83
1390 1 -52 -108 83
1391 1 -51 -109 84
1392 1 -51 -108 84
1393 1 -51 -108 83
1394 1 -50 -109 84
1395 1 -49 -109 83
1396 1 -48 -110 82
1397 1 -49 -110 81
1398 1 -50 -111 81
1399 1 -50 -112 81
1400 1 -49 -112 80
1401 1 -334 160 53
1402 1 -333 159 54
1403 1 -333 160 53
1404 1 -333 161 53
1405 1 -334 162 52
1406 1 -333 162 51
1407 1 -332 161 51
1408 1 -331 162 50
1409 1 -332 163 51
1410 1 -331 164 52
1411 1 -332 163 53
1412 1 -333 163 53
1413 1 -333 164 54
1414 1 -334 165 54
1415 1 -335 166 53
1416 1 -334 166 52
1417 1 -333 165 51
1418 1 -334 165 52
1419 1 -335 164 51
1420 1 -335 165 50
1421 1 -334 166 49
1422 1 -333 167 49
1423 1 -332 167 49
1424 1 -331 168 50
1425 1 -332 168 51
1426 1 -332 169 50
1427 1 -333 168 50
1428 1 -333 168 49
1429 1 -334 167 50
1430 1 -335 167 50
1431 1 -334 168 51
1432 1 -335 168 51
1433 1 -336 168 51
1434 1 -335 169 52
1435 1 -336 168 53
1436 1 -336 169 54
1437 1 -335 170 54
1438 1 -334 170 55
1439 1 -335 171 55
1440 1 -334 171 54
1441 1 -333 170 54
1442 1 -332 171 53
1443 1 -332 172 53
1444 1 -333 173 52
1445 1 -333 173 53
1446 1 -334 173 52
1447 1 -333 172 52
1448 1 -334 172 51
1449 1 -333 173 50
1450 1 -334 174 51
1451 1 117 15 22
1452 1 116 16 21
1453 1 117 17 22
1454 1 117 16 22
1455 1 118 15 21
1456 1 117 14 21
1457 1 117 13 21
1458 1 117 12 20
1459 1 118 12 19
1460 1 117 12 19
1461 1 117 11 18
1462 1 116 12 18
1463 1 116 13 17
1464 1 117 13 18
1465 1 117 12 18
1466 1 118 13 19
1467 1 119 14 20
1468 1 118 14 19
1469 1 118 15 20
1470 1 119 14 21
1471 1 120 13 22
1472 1 120 12 23
1473 1 121 12 23
1474 1 120 12 24
1475 1 121 13 24
1476 1 121 13 25
1477 1 120 13 26
1478 1 120 13 27
1479 1 120 13 28
1480 1 121 14 27
1481 1 120 14 26
1482 1 121 15 26
1483 1 122 16 27
1484 1 123 15 28
1485 1 122 16 29
1486 1 121 15 30
1487 1 122 16 31
1488 1 123 17 31
1489 1 122 17 31
1490 1 123 16 32
1491 1 123 16 31
1492 1 124 15 30
1493 1 125 14 29
1494 1 124 13 30
1495 1 123 12 29
1496 1 122 13 28
1497 1 123 14 27
1498 1 124 13 26
1499 1 123 12 27
1500 1 122 13 27
1501 1 34 39 88
1502 1 34 40 89
1503 1 35 41 90
1504 1 34 40 90
1505 1 35 39 91
1506 1 34 39 91
1507 1 33 40 92
1508 1 33 39 92
1509 1 32 38 93
1510 1 32 37 93
1511 1 31 38 94
1512 1 32 39 94
1513 1 33 40 93
1514 1 34 40 93
1515 1 33 41 92
1516 1 33 42 91
1517 1 34 42 92
1518 1 35 42 91
1519 1 34 42 91
1520 1 35 43 90
1521 1 34 44 91
1522 1 35 45 90
1523 1 34 45 90
1524 1 35 46 90
1525 1 36 46 89
1526 1 37 47 89
1527 1 38 46 88
1528 1 38 45 88
1529 1 37 45 87
1530 1 38 46 87
1531 1 39 47 86
1532 1 39 46 85
1533 1 39 47 85
1534 1 40 47 85
1535 1 40 46 85
1536 1 41 46 84
1537 1 42 46 85
1538 1 43 45 86
1539 1 42 44 87
1540 1 43 44 88
1541 1 44 43 87
1542 1 43 42 87
1543 1 42 41 88
1544 1 43 41 89
1545 1 42 40 88
1546 1 41 40 88
1547 1 40 40 87
1548 1 40 41 87
1549 1 39 40 86
1550 1 40 41 86
1551 1 -51 -59 67
1552 1 -51 -58 68
1553 1 -51 -58 67
1554 1 -51 -57 66
1555 1 -50 -58 66
1556 1 -49 -57 67
1557 1 -50 -58 67
1558 1 -50 -59 67
1559 1 -51 -59 68
1560 1 -52 -58 68
1561 1 -53 -57 67
1562 1 -54 -58 68
1563 1 -53 -57 68
1564 1 -54 -56 67
1565 1 -55 -56 67
1566 1 -54 -57 67
1567 1 -54 -58 66
1568 1 -55 -59 67
1569 1 -54 -59 68
1570 1 -55 -58 67
1571 1 -55 -57 68
1572 1 -56 -57 67
1573 1 -56 -56 67
1574 1 -57 -55 68
1575 1 -57 -56 67
1576 1 -57 -55 66
1577 1 -57 -54 66
1578 1 -57 -53 66
1579 1 -56 -54 67
1580 1 -55 -53 66
1581 1 -56 -53 65
1582 1 -57 -52 65
1583 1 -58 -52 65
1584 1 -59 -51 64
1585 1 -58 -52 63
1586 1 -58 -52 62
1587 1 -58 -53 62
1588 1 -57 -53 61
1589 1 -58 -54 61
1590 1 -57 -54 60
1591 1 -56 -55 59
1592 1 -55 -55 59
1593 1 -54 -54 58
1594 1 -55 -55 58
1595 1 -54 -56 58
1596 1 -53 -55 59
1597 1 -52 -54 60
1598 1 -51 -55 59
1599 1 -50 -54 60
1600 1 -49 -53 61
1601 1 -29 273 69
1602 1 -29 273 68
1603 1 -30 274 67
1604 1 -29 275 67
1605 1 -28 274 66
1606 1 -28 274 67
1607 1 -29 274 68
1608 1 -28 273 67
1609 1 -28 272 67
1610 1 -28 271 68
1611 1 -27 270 69
1612 1 -26 270 69
1613 1 -26 269 69
1614 1 -25 270 69
1615 1 -25 270 70
1616 1 -25 270 71
1617 1 -24 271 72
1618 1 -25 271 71
1619 1 -26 270 72
1620 1 -25 270 72
1621 1 -25 269 73
1622 1 -26 268 72
1623 1 -27 269 72
1624 1 -27 268 72
1625 1 -27 269 71
1626 1 -27 269 70
1627 1 -27 270 70
1628 1 -28 269 70
1629 1 -29 269 69
1630 1 -28 269 68
1631 1 -27 270 68
1632 1 -26 271 68
1633 1 -27 272 69
1634 1 -27 271 68
1635 1 -28 270 68
1636 1 -29 269 68
1637 1 -28 268 67
1638 1 -28 268 66
1639 1 -27 269 67
1640 1 -26 268 68
1641 1 -25 268 67
1642 1 -25 268 68
1643 1 -25 269 69
1644 1 -24 269 69
1645 1 -23 268 68
1646 1 -24 268 68
1647 1 -25 267 69
1648 1 -25 266 69
1649 1 -24 265 69
1650 1 -23 264 68
1651 1 164 -62 65
1652 1 164 -62 64
1653 1 164 -63 65
1654 1 165 -64 64
1655 1 165 -63 63
1656 1 166 -63 62
1657 1 167 -63 61
1658 1 167 -62 60
1659 1 168 -61 60
1660 1 169 -61 59
1661 1 169 -60 60
1662 1 169 -59 60
1663 1 170 -58 60
1664 1 171 -59 59
1665 1 170 -60 59
1666 1 170 -61 58
1667 1 170 -60 57
1668 1 169 -59 56
1669 1 170 -60 56
1670 1 170 -59 57
1671 1 169 -58 56
1672 1 170 -58 55
1673 1 171 -58 56
1674 1 171 -59 55
1675 1 172 -58 56
1676 1 171 -57 55
1677 1 172 -58 54
1678 1 173 -57 55
1679 1 174 -56 55
1680 1 174 -57 56
1681 1 175 -58 55
1682 1 174 -58 54
1683 1 173 -58 55
1684 1 173 -59 56
1685 1 174 -60 56
1686 1 173 -61 55
1687 1 172 -60 54
1688 1 173 -59 53
1689 1 174 -59 54
1690 1 175 -59 54
1691 1 175 -59 53
1692 1 175 -58 54
1693 1 174 -57 53
1694 1 175 -56 54
1695 1 176 -57 55
1696 1 176 -58 54
1697 1 175 -59 55
1698 1 176 -58 56
1699 1 177 -57 55
1700 1 176 -56 56
1701 1 48 -251 7
1702 1 48 -252 8
1703 1 49 -253 7
1704 1 49 -252 8
1705 1 50 -252 9
1706 1 51 -253 9
1707 1 52 -252 8
1708 1 53 -251 8
1709 1 53 -251 7
1710 1 54 -251 8
1711 1 55 -250 8
1712 1 55 -249 9
1713 1 55 -249 8
1714 1 54 -248 9
1715 1 53 -248 8
1716 1 53 -249 9
1717 1 52 -248 9
1718 1 52 -248 10
1719 1 53 -247 9
1720 1 53 -248 9
1721 1 52 -248 8
1722 1 53 -248 7
1723 1 52 -247 6
1724 1 53 -248 5
1725 1 53 -249 5
1726 1 52 -248 4
1727 1 53 -249 3
1728 1 54 -250 3
1729 1 55 -251 4
1730 1 54 -251 5
1731 1 53 -252 6
1732 1 53 -253 7
1733 1 52 -254 7
1734 1 51 -254 8
1735 1 50 -255 7
1736 1 51 -255 7
1737 1 52 -256 7
1738 1 53 -257 8
1739 1 53 -257 9
1740 1 52 -256 9
1741 1 52 -256 8
1742 1 53 -255 9
1743 1 54 -255 8
1744 1 55 -254 8
1745 1 55 -254 7
1746 1 54 -255 6
1747 1 53 -255 5
1748 1 52 -255 6
1749 1 52 -254 5
1750 1 52 -255 5
1751 1 103 -42 28
1752 1 104 -43 27
1753 1 105 -43 28
1754 1 104 -42 27
1755 1 105 -43 26
1756 1 106 -42 27
1757 1 107 -42 28
1758 1 106 -42 28